test                                                                    
SP        RHF                                                         Aug-CC-pVTZ         
Number of atoms                            I                3
Info1-9                                    I   N=           9
          12          10           0           0           0         110
           1           1           2
Full Title                                 C   N=           1
test        
Route                                      C   N=           3
#HF nosymm aug-cc-pvtz pop=full     
Charge                                     I                0
Multiplicity                               I                1
Number of electrons                        I               10
Number of alpha electrons                  I                5
Number of beta electrons                   I                5
Number of basis functions                  I               92
Number of independent functions            I               92
Number of point charges in /Mol/           I                0
Number of translation vectors              I                0
Atomic numbers                             I   N=           3
           1           8           1
Nuclear charges                            R   N=           3
  1.00000000E+00  8.00000000E+00  1.00000000E+00
Current cartesian coordinates              R   N=           9
  0.00000000E+00  0.00000000E+00  0.00000000E+00  0.00000000E+00  0.00000000E+00
  1.80884585E+00  1.75107164E+00  0.00000000E+00  2.26235594E+00
Number of symbols in /Mol/                 I                0
Int Atom Types                             I   N=           3
           0           0           0
Force Field                                I                0
Atom Types                                 C   N=           3
                                    
MM charges                                 R   N=           3
  0.00000000E+00  0.00000000E+00  0.00000000E+00
Integer atomic weights                     I   N=           3
           1          16           1
Real atomic weights                        R   N=           3
  1.00782504E+00  1.59949146E+01  1.00782504E+00
Atom fragment info                         I   N=           3
           0           0           0
Atom residue num                           I   N=           3
           0           0           0
Nuclear spins                              I   N=           3
           1           0           1
Nuclear ZEff                               R   N=           3
 -1.00000000E+00 -5.60000000E+00 -1.00000000E+00
Nuclear ZNuc                               R   N=           3
  1.00000000E+00  8.00000000E+00  1.00000000E+00
Nuclear QMom                               R   N=           3
  0.00000000E+00  0.00000000E+00  0.00000000E+00
Nuclear GFac                               R   N=           3
  2.79284600E+00  0.00000000E+00  2.79284600E+00
MicOpt                                     I   N=           3
          -1          -1          -1
Number of residues                         I                0
Number of secondary structures             I                0
Number of contracted shells                I               32
Number of primitive shells                 I               49
Pure/Cartesian d shells                    I                0
Pure/Cartesian f shells                    I                0
Highest angular momentum                   I                3
Largest degree of contraction              I                7
Shell types                                I   N=          32
           0           0           0           0           1           1
           1          -2          -2           0           0           0
           0           0           1           1           1           1
          -2          -2          -2          -3          -3           0
           0           0           0           1           1           1
          -2          -2
Number of primitives per shell             I   N=          32
           3           1           1           1           1           1
           1           1           1           7           6           1
           1           1           3           1           1           1
           1           1           1           1           1           3
           1           1           1           1           1           1
           1           1
Shell to atom map                          I   N=          32
           1           1           1           1           1           1
           1           1           1           2           2           2
           2           2           2           2           2           2
           2           2           2           2           2           3
           3           3           3           3           3           3
           3           3
Primitive exponents                        R   N=          49
  3.38700000E+01  5.09500000E+00  1.15900000E+00  3.25800000E-01  1.02700000E-01
  2.52600000E-02  1.40700000E+00  3.88000000E-01  1.02000000E-01  1.05700000E+00
  2.47000000E-01  1.53300000E+04  2.29900000E+03  5.22400000E+02  1.47300000E+02
  4.75500000E+01  1.67600000E+01  6.20700000E+00  5.22400000E+02  1.47300000E+02
  4.75500000E+01  1.67600000E+01  6.20700000E+00  6.88200000E-01  1.75200000E+00
  2.38400000E-01  7.37600000E-02  3.44600000E+01  7.74900000E+00  2.28000000E+00
  7.15600000E-01  2.14000000E-01  5.97400000E-02  2.31400000E+00  6.45000000E-01
  2.14000000E-01  1.42800000E+00  5.00000000E-01  3.38700000E+01  5.09500000E+00
  1.15900000E+00  3.25800000E-01  1.02700000E-01  2.52600000E-02  1.40700000E+00
  3.88000000E-01  1.02000000E-01  1.05700000E+00  2.47000000E-01
Contraction coefficients                   R   N=          49
  2.54948632E-02  1.90362766E-01  8.52162022E-01  1.00000000E+00  1.00000000E+00
  1.00000000E+00  1.00000000E+00  1.00000000E+00  1.00000000E+00  1.00000000E+00
  1.00000000E+00  5.19808943E-04  4.02025621E-03  2.07128267E-02  8.10105536E-02
  2.35962985E-01  4.42653446E-01  3.57064423E-01 -4.42115008E-05 -1.22591041E-03
 -1.05517725E-02 -6.74452633E-02 -1.71198607E-01  1.07329856E+00  1.00000000E+00
  1.00000000E+00  1.00000000E+00  4.11634896E-02  2.57762836E-01  8.02419274E-01
  1.00000000E+00  1.00000000E+00  1.00000000E+00  1.00000000E+00  1.00000000E+00
  1.00000000E+00  1.00000000E+00  1.00000000E+00  2.54948632E-02  1.90362766E-01
  8.52162022E-01  1.00000000E+00  1.00000000E+00  1.00000000E+00  1.00000000E+00
  1.00000000E+00  1.00000000E+00  1.00000000E+00  1.00000000E+00
Coordinates of each shell                  R   N=          96
  0.00000000E+00  0.00000000E+00  0.00000000E+00  0.00000000E+00  0.00000000E+00
  0.00000000E+00  0.00000000E+00  0.00000000E+00  0.00000000E+00  0.00000000E+00
  0.00000000E+00  0.00000000E+00  0.00000000E+00  0.00000000E+00  0.00000000E+00
  0.00000000E+00  0.00000000E+00  0.00000000E+00  0.00000000E+00  0.00000000E+00
  0.00000000E+00  0.00000000E+00  0.00000000E+00  0.00000000E+00  0.00000000E+00
  0.00000000E+00  0.00000000E+00  0.00000000E+00  0.00000000E+00  1.80884585E+00
  0.00000000E+00  0.00000000E+00  1.80884585E+00  0.00000000E+00  0.00000000E+00
  1.80884585E+00  0.00000000E+00  0.00000000E+00  1.80884585E+00  0.00000000E+00
  0.00000000E+00  1.80884585E+00  0.00000000E+00  0.00000000E+00  1.80884585E+00
  0.00000000E+00  0.00000000E+00  1.80884585E+00  0.00000000E+00  0.00000000E+00
  1.80884585E+00  0.00000000E+00  0.00000000E+00  1.80884585E+00  0.00000000E+00
  0.00000000E+00  1.80884585E+00  0.00000000E+00  0.00000000E+00  1.80884585E+00
  0.00000000E+00  0.00000000E+00  1.80884585E+00  0.00000000E+00  0.00000000E+00
  1.80884585E+00  0.00000000E+00  0.00000000E+00  1.80884585E+00  1.75107164E+00
  0.00000000E+00  2.26235594E+00  1.75107164E+00  0.00000000E+00  2.26235594E+00
  1.75107164E+00  0.00000000E+00  2.26235594E+00  1.75107164E+00  0.00000000E+00
  2.26235594E+00  1.75107164E+00  0.00000000E+00  2.26235594E+00  1.75107164E+00
  0.00000000E+00  2.26235594E+00  1.75107164E+00  0.00000000E+00  2.26235594E+00
  1.75107164E+00  0.00000000E+00  2.26235594E+00  1.75107164E+00  0.00000000E+00
  2.26235594E+00
Num ILSW                                   I              100
ILSW                                       I   N=         100
           0           0           0           0           2           0
           0           0           0           0           0          -1
           5           0           0           0           0           0
           0           0           1           0           0           0
           1           1           0           0           0           0
           0           0      100000           0          -1           0
           0           0           0           0           0           0
           0           0           0           1           0           0
           0 -2000000000           1           0           0           0
           0           0           4          64           0           0
           0           0           0           0           0           0
           0           0           0           0           0           1
           0           0           0           0           0           0
           0           0           0           0           0           0
           0           0           0           0           0           0
           0           0           0           0           0           0
           0           0           0           0
Num RLSW                                   I               64
RLSW                                       R   N=          64
  1.00000000E+00  1.00000000E+00  1.00000000E+00  1.00000000E+00  1.00000000E+00
  0.00000000E+00  0.00000000E+00  1.00000000E+00  0.00000000E+00  0.00000000E+00
  0.00000000E+00  0.00000000E+00  1.00000000E+00  0.00000000E+00  0.00000000E+00
  0.00000000E+00  0.00000000E+00  1.00000000E+00  0.00000000E+00  0.00000000E+00
  0.00000000E+00  0.00000000E+00  1.00000000E+00  0.00000000E+00  0.00000000E+00
  0.00000000E+00  0.00000000E+00  1.00000000E+00  0.00000000E+00  0.00000000E+00
  0.00000000E+00  0.00000000E+00  1.00000000E+00  0.00000000E+00  0.00000000E+00
  0.00000000E+00  0.00000000E+00  0.00000000E+00  1.00000000E+00  1.00000000E+00
  0.00000000E+00  1.00000000E+00  0.00000000E+00  0.00000000E+00  0.00000000E+00
  0.00000000E+00  0.00000000E+00  0.00000000E+00  0.00000000E+00  0.00000000E+00
  0.00000000E+00  0.00000000E+00  1.00000000E+00  1.00000000E+00  1.00000000E+00
  1.00000000E+00  0.00000000E+00  0.00000000E+00  0.00000000E+00  0.00000000E+00
  0.00000000E+00  0.00000000E+00  0.00000000E+00  0.00000000E+00
MxBond                                     I                2
NBond                                      I   N=           3
           1           2           1
IBond                                      I   N=           6
           2           0           1           3           2           0
RBond                                      R   N=           6
  1.00000000E+00  0.00000000E+00  1.00000000E+00  1.00000000E+00  1.00000000E+00
  0.00000000E+00
Virial Ratio                               R      2.001339438567940E+00
SCF Energy                                 R     -7.606061324626933E+01
Total Energy                               R     -7.606061324626933E+01
RMS Density                                R      3.822682347024804E-09
Job Status                                 I                1
Nuclear derivative order                   I                0
External E-field                           R   N=         105
  0.00000000E+00  0.00000000E+00  0.00000000E+00  0.00000000E+00  0.00000000E+00
  0.00000000E+00  0.00000000E+00  0.00000000E+00  0.00000000E+00  0.00000000E+00
  0.00000000E+00  0.00000000E+00  0.00000000E+00  0.00000000E+00  0.00000000E+00
  0.00000000E+00  0.00000000E+00  0.00000000E+00  0.00000000E+00  0.00000000E+00
  0.00000000E+00  0.00000000E+00  0.00000000E+00  0.00000000E+00  0.00000000E+00
  0.00000000E+00  0.00000000E+00  0.00000000E+00  0.00000000E+00  0.00000000E+00
  0.00000000E+00  0.00000000E+00  0.00000000E+00  0.00000000E+00  0.00000000E+00
  0.00000000E+00  0.00000000E+00  0.00000000E+00  0.00000000E+00  0.00000000E+00
  0.00000000E+00  0.00000000E+00  0.00000000E+00  0.00000000E+00  0.00000000E+00
  0.00000000E+00  0.00000000E+00  0.00000000E+00  0.00000000E+00  0.00000000E+00
  0.00000000E+00  0.00000000E+00  0.00000000E+00  0.00000000E+00  0.00000000E+00
  0.00000000E+00  0.00000000E+00  0.00000000E+00  0.00000000E+00  0.00000000E+00
  0.00000000E+00  0.00000000E+00  0.00000000E+00  0.00000000E+00  0.00000000E+00
  0.00000000E+00  0.00000000E+00  0.00000000E+00  0.00000000E+00  0.00000000E+00
  0.00000000E+00  0.00000000E+00  0.00000000E+00  0.00000000E+00  0.00000000E+00
  0.00000000E+00  0.00000000E+00  0.00000000E+00  0.00000000E+00  0.00000000E+00
  0.00000000E+00  0.00000000E+00  0.00000000E+00  0.00000000E+00  0.00000000E+00
  0.00000000E+00  0.00000000E+00  0.00000000E+00  0.00000000E+00  0.00000000E+00
  0.00000000E+00  0.00000000E+00  0.00000000E+00  0.00000000E+00  0.00000000E+00
  0.00000000E+00  0.00000000E+00  0.00000000E+00  0.00000000E+00  0.00000000E+00
  0.00000000E+00  0.00000000E+00  0.00000000E+00  0.00000000E+00  0.00000000E+00
IOpCl                                      I                0
IROHF                                      I                0
Alpha Orbital Energies                     R   N=          92
 -2.05671816E+01 -1.35361890E+00 -7.17879318E-01 -5.84942514E-01 -5.10365221E-01
  2.94449532E-02  4.76841528E-02  1.35962253E-01  1.58506891E-01  1.75208797E-01
  1.82970937E-01  2.27637530E-01  2.45058622E-01  2.65271011E-01  3.00635567E-01
  3.10540969E-01  3.65867388E-01  4.38204310E-01  4.66822259E-01  5.99699850E-01
  6.58467948E-01  7.08433211E-01  7.22263264E-01  7.31536098E-01  8.31464948E-01
  8.46405425E-01  8.91252544E-01  9.13339037E-01  9.18331273E-01  9.22664012E-01
  9.30862685E-01  9.62617279E-01  1.02263509E+00  1.04464754E+00  1.08323751E+00
  1.10968608E+00  1.17676541E+00  1.18260341E+00  1.25943142E+00  1.51163267E+00
  1.53724356E+00  1.58609857E+00  1.80263482E+00  1.82025394E+00  1.99038713E+00
  2.12047629E+00  2.26280016E+00  2.31679249E+00  2.32539867E+00  2.41894826E+00
  2.42082396E+00  2.44248609E+00  2.47877191E+00  2.67544024E+00  2.69736862E+00
  2.77395740E+00  2.82010498E+00  2.88596179E+00  3.65754665E+00  3.74943766E+00
  4.01923288E+00  4.08758233E+00  4.17085907E+00  4.25103803E+00  4.29379909E+00
  4.37681894E+00  4.37916463E+00  4.40784848E+00  4.51799356E+00  4.72774012E+00
  4.85110299E+00  5.15104713E+00  5.15957673E+00  5.26141674E+00  5.33854057E+00
  5.53117536E+00  5.67322531E+00  6.17975187E+00  6.51403189E+00  6.71017869E+00
  6.90079549E+00  7.13560795E+00  7.25504081E+00  7.31570963E+00  7.31843336E+00
  7.32545422E+00  7.35744367E+00  7.54400234E+00  7.90825817E+00  7.93201287E+00
  8.81678158E+00  1.58359668E+01
Alpha MO coefficients                      R   N=        8464
  5.07019924E-04  8.94771540E-04 -2.61906097E-04  2.24249038E-05  1.81818785E-05
  1.12839470E-17  1.74272343E-04 -6.38759964E-05 -6.16875219E-15  8.54933245E-04
  7.41237075E-06 -2.48041783E-15  1.23594860E-04 -1.44740205E-04  3.86811342E-05
 -1.69811227E-15  4.84487991E-06  3.07388539E-16  4.61304894E-04 -2.32515105E-05
 -2.87978347E-15 -5.13177815E-06  8.70616536E-17  9.76704874E-01 -8.96186934E-03
  4.36120594E-02  9.82909303E-04  3.30227561E-04  1.47577019E-03 -1.00094666E-15
 -1.14225144E-03 -1.22313995E-03  2.66377023E-15  9.46714724E-04  2.41552735E-04
  7.66723277E-15 -1.86962686E-04  1.36260237E-04  1.21141941E-15 -1.05465913E-04
  4.00840993E-05  2.64468838E-05  6.34073107E-18  5.57287380E-05 -1.64847528E-16
 -2.87288422E-04 -1.87537150E-04 -1.92569674E-15 -4.00457639E-04  8.15803272E-16
  7.56977376E-05 -4.47993214E-06 -2.26373310E-15  1.33432843E-04  1.18092073E-15
 -1.73908065E-05 -1.13754526E-05  2.59157699E-16  1.78609935E-05 -5.03226849E-17
 -1.69402284E-06 -5.80511642E-17  1.52761070E-04  5.04151611E-05  1.49301777E-15
 -5.97662728E-05  9.76493828E-16 -7.47941463E-05  7.78753758E-16  5.07019924E-04
  8.94771540E-04 -2.61906097E-04  2.24249038E-05 -1.64147593E-04 -1.77783557E-16
 -6.12943549E-05 -8.43641691E-04 -2.63718191E-15 -1.52511290E-04 -1.17788848E-04
 -1.51244730E-15 -3.81630692E-05  7.89157173E-05 -2.82044952E-05  2.11702878E-17
 -1.24282927E-04  6.57153292E-16 -2.01095866E-04  1.74843363E-04  3.64073508E-16
  3.77305479E-04  1.07142140E-15  8.88000102E-02  7.47279964E-02 -1.51672405E-02
 -1.39885346E-03  6.32356845E-04 -2.98584164E-17  1.30816157E-02  4.76977884E-04
 -2.63291474E-15  9.51283176E-03  2.56337633E-04 -4.20391092E-15 -6.82694851E-03
  2.51185800E-03  3.25222669E-05 -2.44412823E-18 -8.37210842E-05 -1.26619239E-17
 -1.08984106E-03 -6.35268136E-06 -2.54335797E-15  7.56292485E-05  6.08284520E-16
 -2.01344645E-01  4.87252484E-01  1.32672872E-01  2.93220582E-01  3.51184659E-02
  3.53528627E-02 -2.36686489E-16 -2.73632430E-02  5.01123182E-02 -8.50864975E-16
 -3.87871146E-02  1.34656631E-02  4.20052180E-15 -1.04224717E-02  2.21928483E-03
  1.45738856E-15 -1.71773445E-03  2.04231406E-03  1.00291223E-03 -2.23245235E-16
  3.01790319E-03 -2.24277218E-16  4.73250321E-03  1.09171148E-03 -3.45994825E-16
  7.63145123E-03 -1.13570981E-16 -1.72951887E-03 -2.25552958E-03 -2.60630606E-15
 -1.82729521E-03 -1.30261588E-15 -2.29904897E-03 -6.01067925E-04 -1.85220231E-16
  5.90139705E-04 -1.23109837E-16  1.41126054E-03  2.69721705E-19 -7.06493320E-05
  2.18149052E-04  7.08840641E-16 -4.46076112E-04  1.16122735E-16  4.71969093E-04
 -3.98522838E-16  8.88000102E-02  7.47279964E-02 -1.51672405E-02 -1.39885346E-03
 -1.25052481E-02 -1.35621769E-16 -3.89195517E-03 -9.08940674E-03  1.21382837E-15
 -2.84678084E-03  6.67316546E-03 -1.17221239E-16  1.46348818E-03 -1.07336293E-03
  1.10470384E-03 -1.22408860E-16  1.98620718E-03 -2.73771227E-16  5.00869433E-04
 -4.82064082E-04  2.37471213E-16 -8.42767881E-04  1.62599007E-16  0.00000000E+00
 -2.37913490E-01 -4.58495242E-02  3.92303227E-03  4.26580963E-03  2.45762732E-16
 -1.51756387E-02  1.07301015E-02  2.10779420E-14 -3.66574956E-02  5.36668024E-03
  2.01692166E-14  4.08667617E-03 -7.23895152E-03  1.79822528E-03  4.43451074E-15
 -2.59287850E-04 -9.20278610E-16 -2.65576561E-03  3.30478975E-03  2.07771859E-14
  6.85877183E-04 -7.56419790E-15 -1.69778373E-13  3.81871976E-13  1.31538195E-13
 -1.49560110E-12  1.42587629E-12  1.67205921E-01 -6.82630904E-15  2.16027318E-01
  2.00281157E-01 -9.20276498E-15  2.58759982E-01  9.43942688E-02 -7.65355545E-14
  1.21955853E-01  4.07662392E-03 -1.00939978E-14  5.26693154E-03 -1.03998537E-02
  3.11013788E-03  1.68376430E-15  6.00435830E-03  1.57642377E-15 -1.70997433E-02
  5.11377958E-03  7.78668396E-15  9.87254132E-03  2.21972498E-15  1.33415020E-03
 -3.98985529E-04 -1.96789699E-16 -7.70271969E-04 -7.31822994E-15  8.85639515E-04
  1.25166456E-03  2.50633194E-15  1.77644116E-03  3.67983009E-16  1.23302220E-03
 -9.04597606E-16  1.45026478E-03 -1.11721396E-03 -6.71220087E-15  8.45945147E-04
 -6.05127891E-16  1.53301420E-03  3.52922313E-15  1.42510030E-01  2.37913490E-01
  4.58495242E-02 -3.92303227E-03 -1.57604466E-02 -1.73773703E-15  3.24755619E-04
 -3.81768907E-02  1.56109645E-14  1.19669233E-03  2.61062547E-03  2.18638606E-14
  6.21987243E-03 -3.48243484E-03  1.40806887E-03  3.65661894E-16  6.44928315E-03
  2.78340346E-15 -3.02340989E-03 -1.60639862E-03  4.68236111E-15  2.59299630E-03
 -2.03431574E-14  0.00000000E+00 -1.88413193E-01 -7.40812961E-02 -2.33098900E-03
 -7.32141046E-03  1.37233589E-14 -5.80740511E-03 -2.11239727E-02 -6.92653278E-14
 -2.89828406E-02 -1.06389444E-02 -2.29207179E-14  1.80019243E-04 -3.00487418E-03
 -3.03876150E-03  6.02298473E-15 -2.68370350E-04 -5.04021430E-16  5.03980992E-04
 -3.59849022E-03 -1.45194770E-14 -1.70909087E-03 -6.14003381E-15 -7.11161448E-02
  1.90208102E-01  5.21498927E-02  3.73795924E-01  9.74664113E-02 -2.34820737E-01
  3.85427760E-13  1.81752095E-01 -2.92224821E-01  4.85548929E-13  2.26183063E-01
 -1.71296522E-01  4.65729391E-13  1.32584124E-01 -1.03462516E-02  4.92001629E-14
  8.00803596E-03 -2.15663865E-03  3.28353664E-03 -5.96660200E-17 -5.43621422E-03
 -6.48927718E-16 -6.45974615E-04  1.34271193E-02 -4.22085609E-15 -8.07384094E-03
  5.17525298E-15  5.50667923E-03  8.48161415E-03 -8.10007663E-14  5.14454124E-03
  6.72067302E-14  1.72368237E-03 -5.95252909E-05  4.57767757E-16  5.58420725E-04
 -2.15930192E-16 -1.98216795E-03  3.41427844E-15 -1.42630783E-03 -7.95370095E-04
  1.84885767E-14  1.19494368E-03  1.60093707E-14  1.10285101E-04  5.11592283E-15
 -8.31511007E-02 -1.88413193E-01 -7.40812961E-02 -2.33098901E-03  3.78630873E-03
  1.56331337E-14  8.54358657E-03  2.27609752E-02 -4.10559307E-14  2.77157948E-02
 -2.84164363E-03 -3.37645427E-15  1.02540044E-02 -2.76149405E-04 -3.85480282E-03
  4.22635466E-16 -1.84380034E-03 -1.28241711E-15 -3.10430269E-03 -2.51941160E-03
  1.95314277E-14  3.74152690E-04 -4.19285605E-15  0.00000000E+00 -2.98634660E-13
  6.40041243E-13  2.56413678E-13 -1.68749931E-15  1.05949043E-02 -4.02898999E-15
 -4.20852514E-14  4.51412735E-02 -8.12642636E-14  1.36652526E-13  1.84971238E-02
  3.82298810E-13 -2.12472581E-15 -1.66728864E-15  6.69657900E-03 -3.05343080E-16
  3.81509559E-06 -5.04411025E-15 -1.06421206E-14 -6.94947778E-03 -2.71445848E-15
  6.52780738E-03 -4.51069936E-14  1.13553020E-13  2.02889313E-14  1.79248073E-12
  3.19756269E-12 -1.12102586E-13  3.42745818E-01  8.70439488E-14 -6.66617461E-14
  4.55710880E-01  1.24322065E-13  1.05400284E-12  3.25143465E-01  1.79840655E-13
  7.88422725E-13  4.02945120E-02  2.47999104E-13 -3.94154504E-15  1.53496644E-15
 -3.41269611E-03 -9.55085206E-15  4.40914762E-03 -1.63052134E-14  3.07977567E-14
 -8.58785076E-03  4.52917456E-14  1.10953628E-02 -6.34388455E-14  8.36663042E-14
  9.52557121E-03  2.97086612E-13 -1.23068824E-02 -5.94959988E-16 -1.39414936E-16
  2.31521531E-03  4.33284900E-16  8.62119188E-04 -7.63706554E-16  2.62431495E-03
 -1.48537500E-14 -1.43052803E-14 -6.11157804E-04  1.21963435E-14  3.25693059E-04
  1.95451103E-14 -9.26746356E-04 -3.60063882E-14 -1.05752648E-12 -4.18398294E-12
 -7.29016266E-13  6.55871388E-15  1.05949043E-02  4.75389309E-15  3.96719586E-13
  4.51412735E-02  1.38272699E-13  1.14643533E-12  1.84971238E-02  5.22564249E-13
  6.81328487E-15 -1.02727770E-14 -1.68264571E-03 -1.63842790E-14 -6.48173498E-03
  1.85538602E-14 -6.50878415E-14 -4.57695166E-03 -1.02691234E-13  8.36415116E-03
  0.00000000E+00 -2.22235801E-01 -8.36702458E-01 -7.99445805E-01  1.09005165E-03
 -5.13068743E-16  2.71470422E-03 -3.10545298E-04 -3.37690728E-15 -8.14743347E-02
  1.99647382E-02 -2.82261773E-15 -2.35052782E-01 -4.33632696E-03  9.14756393E-04
 -1.10451253E-15  1.38147960E-04 -2.31723392E-16 -2.78369340E-02  2.68873506E-06
  7.07874221E-15 -2.24940765E-03 -1.42174138E-15 -2.73060254E-02  7.08583076E-02
  1.85719531E-02  7.22738367E-01  2.04161313E+00  2.87807474E-02 -4.18602590E-15
 -2.22764020E-02  5.95153913E-02 -1.00600631E-14 -4.60651270E-02  2.49516526E-01
 -3.47462099E-15 -1.93126689E-01  1.43438534E-01 -2.28002070E-14 -1.11021941E-01
 -4.99277620E-04 -6.20104265E-04 -9.51372674E-17 -5.43572560E-04  2.05500225E-16
  1.11867434E-02  4.39352786E-03 -6.73194755E-16  1.71002483E-02  1.31343913E-15
  2.65469542E-02  2.53099084E-02 -4.39761171E-16  3.28706456E-02  1.52525695E-15
 -9.59539474E-04 -2.93001108E-04  3.35844647E-16  3.28969472E-04  2.43233244E-16
  5.12683605E-04  1.96314970E-16 -8.97531793E-03 -2.55217465E-03  6.03350722E-17
  2.70731459E-03  1.22951634E-16  5.13695348E-03 -3.07096377E-16 -4.71640438E-03
 -2.22235801E-01 -8.36702459E-01 -7.99445805E-01 -2.35470156E-03 -1.74012150E-17
 -1.73586063E-03  7.87941998E-02 -5.25147231E-15  2.07277035E-02  2.32550757E-01
 -4.44913085E-15  3.96048803E-02  2.25596463E-03 -1.05670748E-03  6.14220927E-16
 -3.66791337E-03  8.94700211E-16  9.46928326E-03 -1.11539567E-02  4.81804123E-16
 -2.37881622E-02 -6.00717262E-15  0.00000000E+00  2.49741665E-01  1.30864843E+00
  3.34929631E+00  1.34314279E-03  1.39352925E-16 -6.33331236E-04 -1.47851136E-02
  7.25896722E-15  8.89535096E-02 -8.50716296E-02  6.19675230E-15  3.79621507E-01
  5.44505743E-03  6.56430494E-04  5.19354856E-16  2.54571581E-04  6.93752690E-17
  2.72521681E-02 -1.86601889E-02  2.04927229E-15 -5.74896146E-03 -2.08670783E-15
  1.83977441E-13 -7.72697972E-13 -2.33745552E-13  1.49101269E-11  1.85600748E-11
  2.14098062E-02  4.36158811E-16  2.76611198E-02  4.81443475E-02  2.78306961E-15
  6.22017102E-02  3.19017251E-01 -1.45537924E-14  4.12165075E-01  6.61404117E-01
  8.35896999E-15  8.54523311E-01  3.28194956E-05 -9.81486446E-06  2.90823931E-16
 -1.89483444E-05  1.91838686E-16 -2.37483103E-02  7.10207296E-03  9.46928075E-16
  1.37110934E-02 -1.50153391E-16 -1.03101071E-01  3.08329864E-02  3.42184883E-15
  5.95254312E-02 -2.97262527E-15  4.30631555E-04 -5.44209784E-04  1.26798828E-16
  1.12774950E-04 -1.28997011E-16  4.22588882E-04  1.52516164E-17  5.06309962E-03
  2.19860334E-04 -1.24596483E-15  5.63743332E-03 -8.16972676E-16  5.98443131E-03
 -1.18192672E-15  5.44187227E-03 -2.49741665E-01 -1.30864843E+00 -3.34929631E+00
 -9.49852738E-04 -1.63322167E-16  1.14145555E-03  8.98192438E-02  6.18733087E-15
  7.98936063E-03  3.88825449E-01  1.32141077E-15  1.28234637E-02  1.72655707E-03
 -2.80114432E-03  2.52759143E-16 -4.39510515E-03  2.72823324E-16  2.35667683E-02
  3.46248470E-03 -6.55774130E-16 -2.35913651E-02 -6.93765331E-16  6.69247810E-04
 -2.47654724E-01 -3.22934159E+00 -7.31258844E-01 -2.20145268E-04  5.38651230E-17
 -4.97510320E-04 -2.40399187E-02 -3.60174588E-15 -2.48670956E-01 -1.10637151E-01
 -9.83292472E-15 -8.87461585E-01 -1.33725630E-02 -1.61455961E-04 -3.16531315E-16
 -1.68179508E-03  1.63639198E-16 -1.01153221E-01 -2.13278797E-02 -2.70514859E-15
  9.54233324E-03 -4.53583923E-16  1.43461972E-02 -5.66076839E-02 -1.82943144E-02
  1.57749794E+00  6.72068836E+00 -7.10237520E-02 -5.81798989E-16  5.49726396E-02
 -2.75288592E-02 -3.08658501E-16  2.13074361E-02  3.33480828E-01  7.57460483E-15
 -2.58115360E-01  1.63027482E+00  1.07628417E-14 -1.26183858E+00  4.25758954E-04
  5.29503823E-04  1.49708570E-16  4.63163718E-04 -5.39838245E-17  9.58860915E-03
  1.60742787E-02 -5.47325665E-16  8.28180238E-03  6.69633681E-17  3.73034394E-02
 -4.57826978E-02 -3.20458232E-15  8.83259769E-02  2.44862033E-15 -2.46799144E-03
 -1.01630616E-03  6.15770326E-18  1.36148587E-03 -5.84133085E-17  8.42827976E-04
 -1.33534258E-16  5.02967400E-03  2.40398143E-03  7.63296508E-16 -3.42753439E-03
  2.84983763E-16 -1.11485683E-03  4.72424667E-16  6.69247810E-04 -2.47654724E-01
 -3.22934159E+00 -7.31258844E-01  4.26425564E-04  1.85140142E-16  3.37848629E-04
  2.34701212E-01 -2.32096020E-15  8.56183570E-02  8.31377505E-01 -2.12986739E-15
  3.29605957E-01  3.99259520E-03 -5.35460945E-03 -1.24459041E-16 -1.17075738E-02
  3.70849627E-18  3.98174448E-02 -6.34859928E-02  2.11511520E-16 -7.18471183E-02
  1.01264894E-15 -1.49591724E-16  6.66714831E-15  8.97518967E-15 -5.85584318E-15
  1.33517444E-16  5.15534718E-04 -1.09801553E-16 -1.71767234E-15 -4.06611522E-02
  1.20198881E-15  5.95225187E-16 -5.71780269E-01 -4.36034014E-16  1.35152001E-16
 -1.16133547E-16  3.08587644E-03  1.29788018E-16 -6.64805201E-04 -5.69992614E-16
 -4.10491446E-16 -8.16210442E-02 -1.10043169E-16 -8.49418562E-03 -6.27445821E-17
  7.00491184E-16  3.44192860E-17  6.87735055E-15 -1.47762646E-14  1.12333028E-15
 -8.73219176E-02  5.08839018E-16  1.68099463E-15 -8.04944776E-02 -3.26607898E-17
  1.19581006E-14  4.98060959E-02  5.46822238E-15 -1.16160128E-14  1.83079539E+00
 -5.33122249E-15 -1.14838967E-16  7.22933709E-17 -1.15322263E-03  4.74811115E-17
  1.48994479E-03 -3.49731115E-16 -2.13040080E-17  1.72553178E-02  8.85313264E-16
 -2.22935886E-02 -4.55382736E-15 -1.31173025E-15 -1.26408510E-01  1.30479150E-15
  1.63317730E-01 -1.68620933E-16 -1.37599966E-17 -2.97236833E-03 -6.36383734E-17
 -6.44120766E-04 -8.15056950E-17 -3.56489370E-03  3.52910964E-16  1.13854687E-16
  8.61557266E-03  1.24138436E-16  3.16260717E-04  4.22905927E-16  1.09889007E-02
  2.62043276E-16 -1.07032377E-14 -1.49080656E-15  1.25623582E-14 -4.40731040E-17
  5.15534718E-04  2.63022811E-17  2.98141867E-15 -4.06611522E-02  1.94382103E-15
 -1.41949088E-15 -5.71780269E-01  7.05986627E-15 -1.21030952E-17 -4.92653213E-17
 -1.30113128E-04 -4.45948892E-16 -3.15399270E-03 -1.26954799E-16 -1.82997383E-15
  2.86867426E-02  6.25605761E-16  7.68844383E-02  2.96792953E-02 -5.04221438E-01
 -1.23904352E+00 -7.02628766E-01 -1.45519199E-03 -1.48532300E-16 -1.46122265E-02
  3.07717779E-02  2.19442448E-16 -2.64784632E-01  2.31201768E-01  2.67755537E-15
 -1.18211781E+00 -1.43200089E-02  3.68983823E-03  4.24061100E-16  2.70350254E-03
  3.16597255E-16 -1.29010543E-01  1.63693707E-02  3.01388103E-16 -4.45783289E-03
 -2.56366215E-16  4.99447882E-02 -1.36103582E-01 -5.57318636E-02  1.67239581E+00
  4.09143599E+00 -1.39153669E-02 -3.77804473E-16  1.07705440E-02  4.86016667E-02
 -4.33172604E-16 -3.76178649E-02  4.45389588E-01  1.31646470E-15 -3.44733144E-01
 -7.22840497E-01 -2.50489787E-15  5.59481145E-01 -1.52429354E-03  5.91200547E-04
  8.68845210E-17 -2.94638396E-03  1.48385420E-16  4.05890498E-02  2.16549997E-02
  1.21950447E-19  5.90854384E-02 -4.86077570E-17  4.62770445E-02  1.52098915E-01
  1.18451766E-15  1.36998682E-03  1.54851326E-15 -3.43347314E-03 -8.92169341E-04
 -1.57169041E-16  8.70573374E-04 -1.59490436E-16  2.11755624E-03 -4.26874813E-16
 -2.53329722E-02 -1.03739146E-02 -4.84735407E-17  1.38611930E-02  3.47910508E-16
  8.75649170E-03  5.07518494E-16  2.96792953E-02 -5.04221438E-01 -1.23904352E+00
 -7.02628766E-01  1.37806720E-02  7.42505327E-17  5.07226070E-03  2.64042496E-01
 -1.79716647E-15  3.65973236E-02  1.20232761E+00 -2.15768619E-16  7.25609119E-02
  9.55506763E-03 -3.45014494E-03 -1.74290802E-17 -1.10807793E-02 -1.36574096E-16
  5.56045026E-02 -3.88408531E-02 -2.53105372E-16 -1.11045379E-01  1.17102903E-15